<?xml version="1.0" encoding="UTF-8"?>

<!-- generated on 2025-11-21 15:28:29 by Eclipse SUMO sumo Version 1.24.0
<sumoConfiguration xmlns:xsi="http://www.w3.org/2001/XMLSchema-instance" xsi:noNamespaceSchemaLocation="http://sumo.dlr.de/xsd/sumoConfiguration.xsd">

    <input>
        <net-file value="/Users/felipe/Desktop/SUMO/simulación/highway.net.xml"/>
        <route-files value="/Users/felipe/Desktop/SUMO/simulación/routes.rou.xml"/>
    </input>

    <output>
        <tripinfo-output value="/Users/felipe/Desktop/SUMO/simulación/tripinfo.xml"/>
    </output>

    <time>
        <begin value="0"/>
        <end value="2678199.00"/>
        <step-length value="0.5"/>
    </time>

    <report>
        <duration-log.disable value="true"/>
        <no-step-log value="true"/>
    </report>

</sumoConfiguration>
-->

<tripinfos xmlns:xsi="http://www.w3.org/2001/XMLSchema-instance" xsi:noNamespaceSchemaLocation="http://sumo.dlr.de/xsd/tripinfo_file.xsd">
    <tripinfo id="PTCW39_1" depart="27.00" departLane="549786063_1" departPos="4.60" departSpeed="22.22" departDelay="0.00" arrival="271.50" arrivalLane="15725233_0" arrivalPos="552.51" arrivalSpeed="23.74" duration="244.50" routeLength="5644.11" waitingTime="0.00" waitingCount="0" stopTime="0.00" timeLoss="9.31" rerouteNo="0" devices="tripinfo_PTCW39_1" vType="vt_PTCW39" speedFactor="1.06" vaporized=""/>
    <tripinfo id="BJDX57_1" depart="78.00" departLane="549786063_1" departPos="4.60" departSpeed="22.22" departDelay="0.00" arrival="349.00" arrivalLane="15725233_0" arrivalPos="552.51" arrivalSpeed="21.08" duration="271.00" routeLength="5644.11" waitingTime="0.00" waitingCount="0" stopTime="0.00" timeLoss="5.30" rerouteNo="0" devices="tripinfo_BJDX57_1" vType="vt_BJDX57" speedFactor="0.94" vaporized=""/>
    <tripinfo id="FDZK14_1" depart="94.00" departLane="549786063_0" departPos="4.60" departSpeed="22.22" departDelay="0.00" arrival="350.00" arrivalLane="15725233_0" arrivalPos="552.51" arrivalSpeed="21.10" duration="256.00" routeLength="5644.11" waitingTime="0.00" waitingCount="0" stopTime="0.00" timeLoss="9.48" rerouteNo="0" devices="tripinfo_FDZK14_1" vType="vt_FDZK14" speedFactor="1.01" vaporized=""/>
    <tripinfo id="JGYT53_1" depart="118.00" departLane="549786063_2" departPos="4.60" departSpeed="22.22" departDelay="0.00" arrival="351.00" arrivalLane="15725233_1" arrivalPos="552.51" arrivalSpeed="30.00" duration="233.00" routeLength="5644.11" waitingTime="0.00" waitingCount="0" stopTime="0.00" timeLoss="2.68" rerouteNo="0" devices="tripinfo_JGYT53_1" vType="vt_JGYT53" speedFactor="1.08" vaporized=""/>
    <tripinfo id="KPCD40_1" depart="220.00" departLane="549786063_2" departPos="4.60" departSpeed="22.22" departDelay="0.00" arrival="469.00" arrivalLane="15725233_0" arrivalPos="552.51" arrivalSpeed="23.00" duration="249.00" routeLength="5644.11" waitingTime="0.00" waitingCount="0" stopTime="0.00" timeLoss="7.01" rerouteNo="0" devices="tripinfo_KPCD40_1" vType="vt_KPCD40" speedFactor="1.03" vaporized=""/>
    <tripinfo id="KTXG86_1" depart="268.00" departLane="549786063_2" departPos="4.60" departSpeed="22.22" departDelay="0.00" arrival="512.00" arrivalLane="15725233_0" arrivalPos="552.51" arrivalSpeed="23.80" duration="244.00" routeLength="5644.11" waitingTime="0.00" waitingCount="0" stopTime="0.00" timeLoss="5.56" rerouteNo="0" devices="tripinfo_KTXG86_1" vType="vt_KTXG86" speedFactor="1.05" vaporized=""/>
    <tripinfo id="GPKW60_1" depart="257.00" departLane="549786063_1" departPos="4.60" departSpeed="22.22" departDelay="0.00" arrival="562.50" arrivalLane="15725233_0" arrivalPos="552.51" arrivalSpeed="18.73" duration="305.50" routeLength="5644.11" waitingTime="0.00" waitingCount="0" stopTime="0.00" timeLoss="5.81" rerouteNo="0" devices="tripinfo_GPKW60_1" vType="vt_GPKW60" speedFactor="0.83" vaporized=""/>
    <tripinfo id="HGXS54_1" depart="275.00" departLane="549786063_1" departPos="4.60" departSpeed="22.22" departDelay="0.00" arrival="564.00" arrivalLane="15725233_1" arrivalPos="552.51" arrivalSpeed="19.02" duration="289.00" routeLength="5644.11" waitingTime="0.00" waitingCount="0" stopTime="0.00" timeLoss="7.67" rerouteNo="0" devices="tripinfo_HGXS54_1" vType="vt_HGXS54" speedFactor="0.89" vaporized=""/>
    <tripinfo id="KJDG63_1" depart="357.00" departLane="549786063_2" departPos="4.60" departSpeed="22.22" departDelay="0.00" arrival="628.00" arrivalLane="15725233_0" arrivalPos="552.51" arrivalSpeed="21.03" duration="271.00" routeLength="5644.11" waitingTime="0.00" waitingCount="0" stopTime="0.00" timeLoss="5.34" rerouteNo="0" devices="tripinfo_KJDG63_1" vType="vt_KJDG63" speedFactor="0.94" vaporized=""/>
    <tripinfo id="JYKP53_1" depart="408.00" departLane="549786063_1" departPos="4.60" departSpeed="22.22" departDelay="0.00" arrival="648.50" arrivalLane="15725233_0" arrivalPos="552.51" arrivalSpeed="24.53" duration="240.50" routeLength="5644.11" waitingTime="0.00" waitingCount="0" stopTime="0.00" timeLoss="12.00" rerouteNo="0" devices="tripinfo_JYKP53_1" vType="vt_JYKP53" speedFactor="1.09" vaporized=""/>
    <tripinfo id="PPBF57_1" depart="437.00" departLane="549786063_1" departPos="4.60" departSpeed="22.22" departDelay="0.00" arrival="685.50" arrivalLane="15725233_0" arrivalPos="552.51" arrivalSpeed="23.02" duration="248.50" routeLength="5644.11" waitingTime="0.00" waitingCount="0" stopTime="0.00" timeLoss="5.67" rerouteNo="0" devices="tripinfo_PPBF57_1" vType="vt_PPBF57" speedFactor="1.03" vaporized=""/>
    <tripinfo id="DHSX15_1" depart="441.00" departLane="549786063_1" departPos="4.60" departSpeed="22.22" departDelay="0.00" arrival="689.00" arrivalLane="15725233_0" arrivalPos="552.51" arrivalSpeed="23.33" duration="248.00" routeLength="5644.11" waitingTime="0.00" waitingCount="0" stopTime="0.00" timeLoss="10.07" rerouteNo="0" devices="tripinfo_DHSX15_1" vType="vt_DHSX15" speedFactor="1.05" vaporized=""/>
    <tripinfo id="BBKJ49_1" depart="470.00" departLane="549786063_2" departPos="4.60" departSpeed="22.22" departDelay="0.00" arrival="719.00" arrivalLane="15725233_0" arrivalPos="552.51" arrivalSpeed="23.19" duration="249.00" routeLength="5644.11" waitingTime="0.00" waitingCount="0" stopTime="0.00" timeLoss="26.98" rerouteNo="0" devices="tripinfo_BBKJ49_1" vType="vt_BBKJ49" speedFactor="1.12" vaporized=""/>
    <tripinfo id="JKHK56_1" depart="359.00" departLane="549786063_1" departPos="4.60" departSpeed="19.31" departDelay="0.00" arrival="787.00" arrivalLane="15725233_0" arrivalPos="552.51" arrivalSpeed="23.77" duration="428.00" routeLength="5644.11" waitingTime="0.00" waitingCount="0" stopTime="0.00" timeLoss="137.37" rerouteNo="0" devices="tripinfo_JKHK56_1" vType="vt_JKHK56" speedFactor="0.86" vaporized=""/>
    <tripinfo id="RWZC15_1" depart="542.00" departLane="549786063_2" departPos="4.60" departSpeed="22.22" departDelay="0.00" arrival="816.00" arrivalLane="15725233_0" arrivalPos="552.51" arrivalSpeed="20.78" duration="274.00" routeLength="5644.11" waitingTime="0.00" waitingCount="0" stopTime="0.00" timeLoss="5.32" rerouteNo="0" devices="tripinfo_RWZC15_1" vType="vt_RWZC15" speedFactor="0.93" vaporized=""/>
    <tripinfo id="GPBZ33_1" depart="700.50" departLane="549786063_1" departPos="4.60" departSpeed="22.22" departDelay="193.50" arrival="954.50" arrivalLane="15725233_1" arrivalPos="552.51" arrivalSpeed="27.47" duration="254.00" routeLength="5644.11" waitingTime="0.00" waitingCount="0" stopTime="0.00" timeLoss="2.34" rerouteNo="0" devices="tripinfo_GPBZ33_1" vType="vt_GPBZ33" speedFactor="0.99" vaporized=""/>
    <tripinfo id="GWLL24_1" depart="702.50" departLane="549786063_1" departPos="12.10" departSpeed="22.22" departDelay="68.50" arrival="956.50" arrivalLane="15725233_0" arrivalPos="552.51" arrivalSpeed="22.70" duration="254.00" routeLength="5636.61" waitingTime="0.00" waitingCount="0" stopTime="0.00" timeLoss="5.00" rerouteNo="0" devices="tripinfo_GWLL24_1" vType="vt_GWLL24" speedFactor="1.00" vaporized=""/>
    <tripinfo id="CYXZ90_1" depart="704.00" departLane="549786063_1" departPos="4.60" departSpeed="22.22" departDelay="52.00" arrival="974.00" arrivalLane="15725233_0" arrivalPos="552.51" arrivalSpeed="21.25" duration="270.00" routeLength="5644.11" waitingTime="0.00" waitingCount="0" stopTime="0.00" timeLoss="5.26" rerouteNo="0" devices="tripinfo_CYXZ90_1" vType="vt_CYXZ90" speedFactor="0.94" vaporized=""/>
    <tripinfo id="BSRJ31_1" depart="706.00" departLane="549786063_1" departPos="4.60" departSpeed="22.22" departDelay="48.00" arrival="977.50" arrivalLane="15725233_0" arrivalPos="552.51" arrivalSpeed="21.07" duration="271.50" routeLength="5644.11" waitingTime="0.00" waitingCount="0" stopTime="0.00" timeLoss="5.29" rerouteNo="0" devices="tripinfo_BSRJ31_1" vType="vt_BSRJ31" speedFactor="0.94" vaporized=""/>
    <tripinfo id="BJZX44_1" depart="766.00" departLane="549786063_1" departPos="4.60" departSpeed="22.22" departDelay="0.00" arrival="994.00" arrivalLane="15725233_0" arrivalPos="552.51" arrivalSpeed="26.32" duration="228.00" routeLength="5644.11" waitingTime="0.00" waitingCount="0" stopTime="0.00" timeLoss="13.02" rerouteNo="0" devices="tripinfo_BJZX44_1" vType="vt_BJZX44" speedFactor="1.16" vaporized=""/>
    <tripinfo id="SSRC88_1" depart="778.00" departLane="549786063_2" departPos="4.60" departSpeed="22.22" departDelay="0.00" arrival="1027.50" arrivalLane="15725233_0" arrivalPos="552.51" arrivalSpeed="23.46" duration="249.50" routeLength="5644.11" waitingTime="0.00" waitingCount="0" stopTime="0.00" timeLoss="4.70" rerouteNo="0" devices="tripinfo_SSRC88_1" vType="vt_SSRC88" speedFactor="1.02" vaporized=""/>
    <tripinfo id="HFKB30_1" depart="817.00" departLane="549786063_2" departPos="4.60" departSpeed="22.22" departDelay="0.00" arrival="1067.00" arrivalLane="15725233_0" arrivalPos="552.51" arrivalSpeed="28.00" duration="250.00" routeLength="5644.11" waitingTime="0.00" waitingCount="0" stopTime="0.00" timeLoss="3.39" rerouteNo="0" devices="tripinfo_HFKB30_1" vType="vt_HFKB30" speedFactor="1.01" vaporized=""/>
    <tripinfo id="DBLJ13_1" depart="840.00" departLane="549786063_1" departPos="4.60" departSpeed="22.22" departDelay="0.00" arrival="1100.50" arrivalLane="15725233_0" arrivalPos="552.51" arrivalSpeed="22.01" duration="260.50" routeLength="5644.11" waitingTime="0.00" waitingCount="0" stopTime="0.00" timeLoss="5.01" rerouteNo="0" devices="tripinfo_DBLJ13_1" vType="vt_DBLJ13" speedFactor="0.97" vaporized=""/>
    <tripinfo id="GRTV22_1" depart="864.00" departLane="549786063_0" departPos="4.60" departSpeed="22.22" departDelay="0.00" arrival="1149.50" arrivalLane="15725233_0" arrivalPos="552.51" arrivalSpeed="20.38" duration="285.50" routeLength="5644.11" waitingTime="0.00" waitingCount="0" stopTime="0.00" timeLoss="5.30" rerouteNo="0" devices="tripinfo_GRTV22_1" vType="vt_GRTV22" speedFactor="0.89" vaporized=""/>
    <tripinfo id="XS6091_1" depart="871.00" departLane="549786063_1" departPos="4.60" departSpeed="22.22" departDelay="0.00" arrival="1178.50" arrivalLane="15725233_0" arrivalPos="552.51" arrivalSpeed="19.02" duration="307.50" routeLength="5644.11" waitingTime="0.00" waitingCount="0" stopTime="0.00" timeLoss="5.56" rerouteNo="0" devices="tripinfo_XS6091_1" vType="vt_XS6091" speedFactor="0.83" vaporized=""/>
    <tripinfo id="LVGC96_1" depart="915.00" departLane="549786063_2" departPos="4.60" departSpeed="22.22" departDelay="0.00" arrival="1191.50" arrivalLane="15725233_0" arrivalPos="552.51" arrivalSpeed="21.12" duration="276.50" routeLength="5644.11" waitingTime="0.00" waitingCount="0" stopTime="0.00" timeLoss="5.07" rerouteNo="0" devices="tripinfo_LVGC96_1" vType="vt_LVGC96" speedFactor="0.92" vaporized=""/>
    <tripinfo id="CFDW25_1" depart="950.00" departLane="549786063_1" departPos="4.60" departSpeed="22.22" departDelay="0.00" arrival="1197.00" arrivalLane="15725233_1" arrivalPos="552.51" arrivalSpeed="23.52" duration="247.00" routeLength="5644.11" waitingTime="0.00" waitingCount="0" stopTime="0.00" timeLoss="26.86" rerouteNo="0" devices="tripinfo_CFDW25_1" vType="vt_CFDW25" speedFactor="1.13" vaporized=""/>
    <tripinfo id="KSGB91_1" depart="963.00" departLane="549786063_2" departPos="4.60" departSpeed="22.22" departDelay="0.00" arrival="1201.50" arrivalLane="15725233_1" arrivalPos="552.51" arrivalSpeed="25.22" duration="238.50" routeLength="5644.11" waitingTime="0.00" waitingCount="0" stopTime="0.00" timeLoss="26.92" rerouteNo="0" devices="tripinfo_KSGB91_1" vType="vt_KSGB91" speedFactor="1.18" vaporized=""/>
    <tripinfo id="KLFW30_1" depart="914.00" departLane="549786063_1" departPos="4.60" departSpeed="22.22" departDelay="0.00" arrival="1205.00" arrivalLane="15725233_0" arrivalPos="552.51" arrivalSpeed="20.00" duration="291.00" routeLength="5644.11" waitingTime="0.00" waitingCount="0" stopTime="0.00" timeLoss="5.39" rerouteNo="0" devices="tripinfo_KLFW30_1" vType="vt_KLFW30" speedFactor="0.87" vaporized=""/>
    <tripinfo id="KKSJ42_1" depart="969.00" departLane="549786063_1" departPos="4.60" departSpeed="22.22" departDelay="0.00" arrival="1206.50" arrivalLane="15725233_1" arrivalPos="552.51" arrivalSpeed="25.22" duration="237.50" routeLength="5644.11" waitingTime="0.00" waitingCount="0" stopTime="0.00" timeLoss="21.51" rerouteNo="0" devices="tripinfo_KKSJ42_1" vType="vt_KKSJ42" speedFactor="1.15" vaporized=""/>
    <tripinfo id="GLKB77_1" depart="941.00" departLane="549786063_1" departPos="4.60" departSpeed="22.22" departDelay="0.00" arrival="1209.00" arrivalLane="15725233_0" arrivalPos="552.51" arrivalSpeed="21.24" duration="268.00" routeLength="5644.11" waitingTime="0.00" waitingCount="0" stopTime="0.00" timeLoss="5.24" rerouteNo="0" devices="tripinfo_GLKB77_1" vType="vt_GLKB77" speedFactor="0.95" vaporized=""/>
    <tripinfo id="KWKD82_1" depart="962.00" departLane="549786063_1" departPos="4.60" departSpeed="22.22" departDelay="0.00" arrival="1235.00" arrivalLane="15725233_0" arrivalPos="552.51" arrivalSpeed="20.94" duration="273.00" routeLength="5644.11" waitingTime="0.00" waitingCount="0" stopTime="0.00" timeLoss="5.33" rerouteNo="0" devices="tripinfo_KWKD82_1" vType="vt_KWKD82" speedFactor="0.93" vaporized=""/>
    <tripinfo id="STLB76_1" depart="1021.00" departLane="549786063_1" departPos="4.60" departSpeed="22.22" departDelay="0.00" arrival="1248.00" arrivalLane="15725233_0" arrivalPos="552.51" arrivalSpeed="26.57" duration="227.00" routeLength="5644.11" waitingTime="0.00" waitingCount="0" stopTime="0.00" timeLoss="14.51" rerouteNo="0" devices="tripinfo_STLB76_1" vType="vt_STLB76" speedFactor="1.17" vaporized=""/>
    <tripinfo id="HXKS36_1" depart="1019.00" departLane="549786063_1" departPos="4.60" departSpeed="22.22" departDelay="0.00" arrival="1271.50" arrivalLane="15725233_0" arrivalPos="552.51" arrivalSpeed="22.91" duration="252.50" routeLength="5644.11" waitingTime="0.00" waitingCount="0" stopTime="0.00" timeLoss="4.76" rerouteNo="0" devices="tripinfo_HXKS36_1" vType="vt_HXKS36" speedFactor="1.01" vaporized=""/>
    <tripinfo id="CYYC36_1" depart="1022.00" departLane="549786063_0" departPos="4.60" departSpeed="22.22" departDelay="0.00" arrival="1277.50" arrivalLane="15725233_0" arrivalPos="552.51" arrivalSpeed="22.51" duration="255.50" routeLength="5644.11" waitingTime="0.00" waitingCount="0" stopTime="0.00" timeLoss="4.99" rerouteNo="0" devices="tripinfo_CYYC36_1" vType="vt_CYYC36" speedFactor="0.99" vaporized=""/>
    <tripinfo id="PCVX82_1" depart="1031.00" departLane="549786063_1" departPos="4.60" departSpeed="22.22" departDelay="0.00" arrival="1280.50" arrivalLane="15725233_0" arrivalPos="552.51" arrivalSpeed="22.87" duration="249.50" routeLength="5644.11" waitingTime="0.00" waitingCount="0" stopTime="0.00" timeLoss="5.28" rerouteNo="0" devices="tripinfo_PCVX82_1" vType="vt_PCVX82" speedFactor="1.02" vaporized=""/>
    <tripinfo id="SWYV30_1" depart="1084.00" departLane="549786063_2" departPos="4.60" departSpeed="22.22" departDelay="0.00" arrival="1319.50" arrivalLane="15725233_0" arrivalPos="552.51" arrivalSpeed="24.93" duration="235.50" routeLength="5644.11" waitingTime="0.00" waitingCount="0" stopTime="0.00" timeLoss="7.09" rerouteNo="0" devices="tripinfo_SWYV30_1" vType="vt_SWYV30" speedFactor="1.09" vaporized=""/>
    <tripinfo id="LZFW91_1" depart="1082.00" departLane="549786063_0" departPos="4.60" departSpeed="22.22" departDelay="0.00" arrival="1347.50" arrivalLane="15725233_0" arrivalPos="552.51" arrivalSpeed="21.91" duration="265.50" routeLength="5644.11" waitingTime="0.00" waitingCount="0" stopTime="0.00" timeLoss="5.01" rerouteNo="0" devices="tripinfo_LZFW91_1" vType="vt_LZFW91" speedFactor="0.96" vaporized=""/>
    <tripinfo id="CBVB32_1" depart="1152.00" departLane="549786063_0" departPos="4.60" departSpeed="22.22" departDelay="0.00" arrival="1402.50" arrivalLane="15725233_0" arrivalPos="552.51" arrivalSpeed="22.92" duration="250.50" routeLength="5644.11" waitingTime="0.00" waitingCount="0" stopTime="0.00" timeLoss="21.34" rerouteNo="0" devices="tripinfo_CBVB32_1" vType="vt_CBVB32" speedFactor="1.09" vaporized=""/>
    <tripinfo id="RJDK46_1" depart="1206.50" departLane="549786063_2" departPos="4.60" departSpeed="19.66" departDelay="12.50" arrival="1491.50" arrivalLane="15725233_1" arrivalPos="552.51" arrivalSpeed="24.34" duration="285.00" routeLength="5644.11" waitingTime="0.00" waitingCount="0" stopTime="0.00" timeLoss="0.91" rerouteNo="0" devices="tripinfo_RJDK46_1" vType="vt_RJDK46" speedFactor="0.88" vaporized=""/>
    <tripinfo id="HWRV47_1" depart="1267.00" departLane="549786063_2" departPos="4.60" departSpeed="22.22" departDelay="0.00" arrival="1516.50" arrivalLane="15725233_1" arrivalPos="552.51" arrivalSpeed="32.30" duration="249.50" routeLength="5644.11" waitingTime="0.00" waitingCount="0" stopTime="0.00" timeLoss="36.45" rerouteNo="0" devices="tripinfo_HWRV47_1" vType="vt_HWRV47" speedFactor="1.17" vaporized=""/>
    <tripinfo id="FKDL25_1" depart="1282.00" departLane="549786063_2" departPos="4.60" departSpeed="22.22" departDelay="0.00" arrival="1526.50" arrivalLane="15725233_0" arrivalPos="552.51" arrivalSpeed="23.54" duration="244.50" routeLength="5644.11" waitingTime="0.00" waitingCount="0" stopTime="0.00" timeLoss="17.18" rerouteNo="0" devices="tripinfo_FKDL25_1" vType="vt_FKDL25" speedFactor="1.10" vaporized=""/>
    <tripinfo id="RDDG28_1" depart="1280.00" departLane="549786063_2" departPos="4.60" departSpeed="22.22" departDelay="0.00" arrival="1530.50" arrivalLane="15725233_0" arrivalPos="552.51" arrivalSpeed="22.74" duration="250.50" routeLength="5644.11" waitingTime="0.00" waitingCount="0" stopTime="0.00" timeLoss="5.44" rerouteNo="0" devices="tripinfo_RDDG28_1" vType="vt_RDDG28" speedFactor="1.02" vaporized=""/>
    <tripinfo id="RZPS99_1" depart="1244.00" departLane="549786063_2" departPos="4.60" departSpeed="22.22" departDelay="0.00" arrival="1541.00" arrivalLane="15725233_0" arrivalPos="552.51" arrivalSpeed="19.27" duration="297.00" routeLength="5644.11" waitingTime="0.00" waitingCount="0" stopTime="0.00" timeLoss="5.65" rerouteNo="0" devices="tripinfo_RZPS99_1" vType="vt_RZPS99" speedFactor="0.85" vaporized=""/>
    <tripinfo id="RSRZ52_1" depart="1291.00" departLane="549786063_2" departPos="4.60" departSpeed="22.22" departDelay="0.00" arrival="1546.50" arrivalLane="15725233_0" arrivalPos="552.51" arrivalSpeed="22.17" duration="255.50" routeLength="5644.11" waitingTime="0.00" waitingCount="0" stopTime="0.00" timeLoss="5.09" rerouteNo="0" devices="tripinfo_RSRZ52_1" vType="vt_RSRZ52" speedFactor="1.00" vaporized=""/>
    <tripinfo id="JVGW57_1" depart="1304.00" departLane="549786063_2" departPos="4.60" departSpeed="22.22" departDelay="0.00" arrival="1554.50" arrivalLane="15725233_0" arrivalPos="552.51" arrivalSpeed="22.91" duration="250.50" routeLength="5644.11" waitingTime="0.00" waitingCount="0" stopTime="0.00" timeLoss="32.30" rerouteNo="0" devices="tripinfo_JVGW57_1" vType="vt_JVGW57" speedFactor="1.14" vaporized=""/>
    <tripinfo id="TCPZ83_1" depart="1402.50" departLane="549786063_1" departPos="4.60" departSpeed="21.78" departDelay="370.50" arrival="1690.00" arrivalLane="15725233_0" arrivalPos="552.51" arrivalSpeed="27.03" duration="287.50" routeLength="5644.11" waitingTime="0.00" waitingCount="0" stopTime="0.00" timeLoss="31.60" rerouteNo="0" devices="tripinfo_TCPZ83_1" vType="vt_TCPZ83" speedFactor="0.97" vaporized=""/>
    <tripinfo id="GDHY64_1" depart="1477.00" departLane="549786063_0" departPos="4.60" departSpeed="22.22" departDelay="0.00" arrival="1736.00" arrivalLane="15725233_0" arrivalPos="552.51" arrivalSpeed="26.78" duration="259.00" routeLength="5644.11" waitingTime="0.00" waitingCount="0" stopTime="0.00" timeLoss="2.02" rerouteNo="0" devices="tripinfo_GDHY64_1" vType="vt_GDHY64" speedFactor="0.97" vaporized=""/>
    <tripinfo id="LVZC39_1" depart="1592.50" departLane="549786063_1" departPos="4.60" departSpeed="22.22" departDelay="553.50" arrival="1818.00" arrivalLane="15725233_1" arrivalPos="552.51" arrivalSpeed="32.67" duration="225.50" routeLength="5644.11" waitingTime="0.00" waitingCount="0" stopTime="0.00" timeLoss="14.46" rerouteNo="0" devices="tripinfo_LVZC39_1" vType="vt_LVZC39" speedFactor="1.18" vaporized=""/>
    <tripinfo id="RLDX39_1" depart="1594.00" departLane="549786063_1" departPos="4.60" departSpeed="22.22" departDelay="539.00" arrival="1839.00" arrivalLane="15725233_0" arrivalPos="552.51" arrivalSpeed="24.71" duration="245.00" routeLength="5644.11" waitingTime="0.00" waitingCount="0" stopTime="0.00" timeLoss="18.75" rerouteNo="0" devices="tripinfo_RLDX39_1" vType="vt_RLDX39" speedFactor="1.10" vaporized=""/>
    <tripinfo id="GCDH34_1" depart="1599.00" departLane="549786063_1" departPos="4.60" departSpeed="22.22" departDelay="491.00" arrival="1844.50" arrivalLane="15725233_0" arrivalPos="552.51" arrivalSpeed="23.79" duration="245.50" routeLength="5644.11" waitingTime="0.00" waitingCount="0" stopTime="0.00" timeLoss="5.44" rerouteNo="0" devices="tripinfo_GCDH34_1" vType="vt_GCDH34" speedFactor="1.04" vaporized=""/>
    <tripinfo id="DDYH37_1" depart="1600.50" departLane="549786063_1" departPos="4.60" departSpeed="22.22" departDelay="472.50" arrival="1846.00" arrivalLane="15725233_1" arrivalPos="552.51" arrivalSpeed="23.42" duration="245.50" routeLength="5644.11" waitingTime="0.00" waitingCount="0" stopTime="0.00" timeLoss="6.68" rerouteNo="0" devices="tripinfo_DDYH37_1" vType="vt_DDYH37" speedFactor="1.04" vaporized=""/>
    <tripinfo id="JBGS23_1" depart="1597.50" departLane="549786063_1" departPos="4.60" departSpeed="22.22" departDelay="524.50" arrival="1850.50" arrivalLane="15725233_0" arrivalPos="552.51" arrivalSpeed="21.76" duration="253.00" routeLength="5644.11" waitingTime="0.00" waitingCount="0" stopTime="0.00" timeLoss="11.29" rerouteNo="0" devices="tripinfo_JBGS23_1" vType="vt_JBGS23" speedFactor="1.03" vaporized=""/>
    <tripinfo id="KWBP59_1" depart="1602.00" departLane="549786063_1" departPos="4.60" departSpeed="22.22" departDelay="446.00" arrival="1866.00" arrivalLane="15725233_0" arrivalPos="552.51" arrivalSpeed="22.55" duration="264.00" routeLength="5644.11" waitingTime="0.00" waitingCount="0" stopTime="0.00" timeLoss="14.15" rerouteNo="0" devices="tripinfo_KWBP59_1" vType="vt_KWBP59" speedFactor="1.00" vaporized=""/>
    <tripinfo id="HCDD64_1" depart="1595.50" departLane="549786063_1" departPos="4.60" departSpeed="22.22" departDelay="536.50" arrival="1877.50" arrivalLane="15725233_0" arrivalPos="552.51" arrivalSpeed="20.80" duration="282.00" routeLength="5644.11" waitingTime="0.00" waitingCount="0" stopTime="0.00" timeLoss="5.23" rerouteNo="0" devices="tripinfo_HCDD64_1" vType="vt_HCDD64" speedFactor="0.90" vaporized=""/>
    <tripinfo id="HZZF26_1" depart="1603.50" departLane="549786063_1" departPos="4.60" departSpeed="22.22" departDelay="411.50" arrival="1886.00" arrivalLane="15725233_0" arrivalPos="552.51" arrivalSpeed="20.09" duration="282.50" routeLength="5644.11" waitingTime="0.00" waitingCount="0" stopTime="0.00" timeLoss="5.67" rerouteNo="0" devices="tripinfo_HZZF26_1" vType="vt_HZZF26" speedFactor="0.90" vaporized=""/>
    <tripinfo id="LJRL15_1" depart="1605.50" departLane="549786063_1" departPos="4.60" departSpeed="22.22" departDelay="397.50" arrival="1904.00" arrivalLane="15725233_0" arrivalPos="552.51" arrivalSpeed="19.13" duration="298.50" routeLength="5644.11" waitingTime="0.00" waitingCount="0" stopTime="0.00" timeLoss="5.75" rerouteNo="0" devices="tripinfo_LJRL15_1" vType="vt_LJRL15" speedFactor="0.85" vaporized=""/>
    <tripinfo id="XE9722_1" depart="1675.00" departLane="549786063_2" departPos="4.60" departSpeed="22.22" departDelay="0.00" arrival="1955.50" arrivalLane="15725233_0" arrivalPos="552.51" arrivalSpeed="20.33" duration="280.50" routeLength="5644.11" waitingTime="0.00" waitingCount="0" stopTime="0.00" timeLoss="5.54" rerouteNo="0" devices="tripinfo_XE9722_1" vType="vt_XE9722" speedFactor="0.91" vaporized=""/>
    <tripinfo id="HZJT54_1" depart="1708.00" departLane="549786063_2" departPos="4.60" departSpeed="22.22" departDelay="0.00" arrival="1969.00" arrivalLane="15725233_0" arrivalPos="552.51" arrivalSpeed="22.43" duration="261.00" routeLength="5644.11" waitingTime="0.00" waitingCount="0" stopTime="0.00" timeLoss="4.77" rerouteNo="0" devices="tripinfo_HZJT54_1" vType="vt_HZJT54" speedFactor="0.97" vaporized=""/>
    <tripinfo id="HWKJ54_1" depart="1747.00" departLane="549786063_2" departPos="4.60" departSpeed="22.22" departDelay="0.00" arrival="1989.00" arrivalLane="15725233_0" arrivalPos="552.51" arrivalSpeed="23.90" duration="242.00" routeLength="5644.11" waitingTime="0.00" waitingCount="0" stopTime="0.00" timeLoss="6.06" rerouteNo="0" devices="tripinfo_HWKJ54_1" vType="vt_HWKJ54" speedFactor="1.06" vaporized=""/>
    <tripinfo id="JZXJ88_1" depart="1768.00" departLane="549786063_0" departPos="4.60" departSpeed="22.22" departDelay="0.00" arrival="2015.00" arrivalLane="15725233_0" arrivalPos="552.51" arrivalSpeed="23.23" duration="247.00" routeLength="5644.11" waitingTime="0.00" waitingCount="0" stopTime="0.00" timeLoss="5.76" rerouteNo="0" devices="tripinfo_JZXJ88_1" vType="vt_JZXJ88" speedFactor="1.03" vaporized=""/>
    <tripinfo id="RKYT15_1" depart="1762.00" departLane="549786063_2" departPos="4.60" departSpeed="22.22" departDelay="0.00" arrival="2020.00" arrivalLane="15725233_0" arrivalPos="552.51" arrivalSpeed="22.13" duration="258.00" routeLength="5644.11" waitingTime="0.00" waitingCount="0" stopTime="0.00" timeLoss="5.04" rerouteNo="0" devices="tripinfo_RKYT15_1" vType="vt_RKYT15" speedFactor="0.98" vaporized=""/>
    <tripinfo id="LSLK16_1" depart="1799.00" departLane="549786063_2" departPos="4.60" departSpeed="22.22" departDelay="0.00" arrival="2051.50" arrivalLane="15725233_0" arrivalPos="552.51" arrivalSpeed="22.48" duration="252.50" routeLength="5644.11" waitingTime="0.00" waitingCount="0" stopTime="0.00" timeLoss="5.12" rerouteNo="0" devices="tripinfo_LSLK16_1" vType="vt_LSLK16" speedFactor="1.01" vaporized=""/>
    <tripinfo id="SJYH43_1" depart="1849.00" departLane="549786063_2" departPos="4.60" departSpeed="22.22" departDelay="0.00" arrival="2097.00" arrivalLane="15725233_0" arrivalPos="552.51" arrivalSpeed="23.13" duration="248.00" routeLength="5644.11" waitingTime="0.00" waitingCount="0" stopTime="0.00" timeLoss="7.02" rerouteNo="0" devices="tripinfo_SJYH43_1" vType="vt_SJYH43" speedFactor="1.03" vaporized=""/>
    <tripinfo id="LPJW20_1" depart="1861.00" departLane="549786063_2" departPos="4.60" departSpeed="22.22" departDelay="0.00" arrival="2112.50" arrivalLane="15725233_0" arrivalPos="552.51" arrivalSpeed="22.65" duration="251.50" routeLength="5644.11" waitingTime="0.00" waitingCount="0" stopTime="0.00" timeLoss="6.45" rerouteNo="0" devices="tripinfo_LPJW20_1" vType="vt_LPJW20" speedFactor="1.02" vaporized=""/>
    <tripinfo id="PLPV51_1" depart="1894.00" departLane="549786063_2" departPos="4.60" departSpeed="22.22" departDelay="0.00" arrival="2150.50" arrivalLane="15725233_1" arrivalPos="552.51" arrivalSpeed="27.08" duration="256.50" routeLength="5644.11" waitingTime="0.00" waitingCount="0" stopTime="0.00" timeLoss="0.90" rerouteNo="0" devices="tripinfo_PLPV51_1" vType="vt_PLPV51" speedFactor="0.98" vaporized=""/>
    <tripinfo id="STHP35_1" depart="1923.00" departLane="549786063_2" departPos="4.60" departSpeed="22.22" departDelay="0.00" arrival="2172.00" arrivalLane="15725233_1" arrivalPos="552.51" arrivalSpeed="23.16" duration="249.00" routeLength="5644.11" waitingTime="0.00" waitingCount="0" stopTime="0.00" timeLoss="5.04" rerouteNo="0" devices="tripinfo_STHP35_1" vType="vt_STHP35" speedFactor="1.02" vaporized=""/>
    <tripinfo id="CHRF31_1" depart="1950.00" departLane="549786063_0" departPos="4.60" departSpeed="22.22" departDelay="0.00" arrival="2235.00" arrivalLane="15725233_0" arrivalPos="552.51" arrivalSpeed="20.33" duration="285.00" routeLength="5644.11" waitingTime="0.00" waitingCount="0" stopTime="0.00" timeLoss="5.45" rerouteNo="0" devices="tripinfo_CHRF31_1" vType="vt_CHRF31" speedFactor="0.89" vaporized=""/>
    <tripinfo id="DSLW17_1" depart="1958.00" departLane="549786063_0" departPos="4.60" departSpeed="22.22" departDelay="0.00" arrival="2238.00" arrivalLane="15725233_0" arrivalPos="552.51" arrivalSpeed="19.95" duration="280.00" routeLength="5644.11" waitingTime="0.00" waitingCount="0" stopTime="0.00" timeLoss="9.68" rerouteNo="0" devices="tripinfo_DSLW17_1" vType="vt_DSLW17" speedFactor="0.92" vaporized=""/>
    <tripinfo id="LCPH87_1" depart="1950.00" departLane="549786063_2" departPos="4.60" departSpeed="21.36" departDelay="0.00" arrival="2246.50" arrivalLane="15725233_1" arrivalPos="552.51" arrivalSpeed="23.11" duration="296.50" routeLength="5644.11" waitingTime="0.00" waitingCount="0" stopTime="0.00" timeLoss="-2.20" rerouteNo="0" devices="tripinfo_LCPH87_1" vType="vt_LCPH87" speedFactor="0.83" vaporized=""/>